<?xml version="1.0" encoding="UTF-8"?>

<!-- generated on Sun Nov 10 12:07:26 2013 by SUMO sumo Version 0.17.1
<?xml version="1.0" encoding="UTF-8"?>

<configuration xmlns:xsi="http://www.w3.org/2001/XMLSchema-instance" xsi:noNamespaceSchemaLocation="http://sumo.sf.net/xsd/sumoConfiguration.xsd">

    <input>
        <net-file value="road_map/test.net.xml"/>
        <route-files value="road_map/test.rou.xml"/>
        <additional-files value="road_map/test.add.xml"/>
    </input>

    <output>
        <tripinfo-output value="road_map/tripinfo.xml"/>
    </output>

    <time>
        <begin value="0"/>
    </time>

    <report>
        <verbose value="true"/>
        <no-step-log value="true"/>
    </report>

</configuration>
-->

<tripinfos>
    <tripinfo id="16" depart="5.00" departLane="4_0" departPos="2.38" departSpeed="0.00" departDelay="-0.47" arrival="117.00" arrivalLane="4_0" arrivalPos="328.25" arrivalSpeed="2.98" duration="112.00" routeLength="325.87" waitSteps="0" rerouteNo="0" devices="tripinfo_16" vType="9" vaporized=""/>
    <tripinfo id="28" depart="45.00" departLane="20_0" departPos="9.10" departSpeed="0.00" departDelay="-0.80" arrival="119.00" arrivalLane="20_0" arrivalPos="328.25" arrivalSpeed="4.56" duration="74.00" routeLength="319.15" waitSteps="0" rerouteNo="0" devices="tripinfo_28" vType="3" vaporized=""/>
    <tripinfo id="42" depart="16.00" departLane="4_0" departPos="9.34" departSpeed="0.00" departDelay="-0.06" arrival="121.00" arrivalLane="4_0" arrivalPos="328.25" arrivalSpeed="4.48" duration="105.00" routeLength="318.91" waitSteps="0" rerouteNo="0" devices="tripinfo_42" vType="6" vaporized=""/>
    <tripinfo id="79" depart="30.00" departLane="22_0" departPos="2.38" departSpeed="0.00" departDelay="-0.16" arrival="144.00" arrivalLane="22_0" arrivalPos="328.25" arrivalSpeed="3.08" duration="114.00" routeLength="325.87" waitSteps="0" rerouteNo="0" devices="tripinfo_79" vType="9" vaporized=""/>
    <tripinfo id="93" depart="74.00" departLane="4_0" departPos="9.34" departSpeed="0.00" departDelay="-0.46" arrival="147.00" arrivalLane="4_0" arrivalPos="328.25" arrivalSpeed="4.36" duration="73.00" routeLength="318.91" waitSteps="0" rerouteNo="0" devices="tripinfo_93" vType="6" vaporized=""/>
    <tripinfo id="26" depart="113.00" departLane="15_0" departPos="9.10" departSpeed="0.00" departDelay="-0.05" arrival="187.00" arrivalLane="15_0" arrivalPos="328.25" arrivalSpeed="4.73" duration="74.00" routeLength="319.15" waitSteps="0" rerouteNo="0" devices="tripinfo_26" vType="3" vaporized=""/>
    <tripinfo id="18" depart="121.00" departLane="13_0" departPos="9.10" departSpeed="0.00" departDelay="-0.51" arrival="195.00" arrivalLane="13_0" arrivalPos="328.25" arrivalSpeed="4.23" duration="74.00" routeLength="319.15" waitSteps="0" rerouteNo="0" devices="tripinfo_18" vType="3" vaporized=""/>
    <tripinfo id="50" depart="150.00" departLane="13_0" departPos="9.34" departSpeed="0.00" departDelay="-0.51" arrival="223.00" arrivalLane="13_0" arrivalPos="328.25" arrivalSpeed="4.39" duration="73.00" routeLength="318.91" waitSteps="0" rerouteNo="0" devices="tripinfo_50" vType="6" vaporized=""/>
    <tripinfo id="19" depart="130.00" departLane="15_0" departPos="2.24" departSpeed="0.00" departDelay="-0.21" arrival="322.00" arrivalLane="15_0" arrivalPos="328.25" arrivalSpeed="1.65" duration="192.00" routeLength="326.01" waitSteps="0" rerouteNo="0" devices="tripinfo_19" vType="4" vaporized=""/>
    <tripinfo id="32" depart="21.00" departLane="17_0" departPos="7.99" departSpeed="0.00" departDelay="-0.89" arrival="333.00" arrivalLane="1_0" arrivalPos="328.25" arrivalSpeed="2.08" duration="312.00" routeLength="643.76" waitSteps="0" rerouteNo="0" devices="tripinfo_32" vType="1" vaporized=""/>
    <tripinfo id="65" depart="278.00" departLane="15_0" departPos="9.34" departSpeed="0.00" departDelay="-0.15" arrival="351.00" arrivalLane="15_0" arrivalPos="328.25" arrivalSpeed="4.56" duration="73.00" routeLength="318.91" waitSteps="0" rerouteNo="0" devices="tripinfo_65" vType="6" vaporized=""/>
    <tripinfo id="99" depart="39.00" departLane="7_0" departPos="2.93" departSpeed="0.00" departDelay="-0.46" arrival="365.00" arrivalLane="7_0" arrivalPos="328.25" arrivalSpeed="0.90" duration="326.00" routeLength="325.32" waitSteps="0" rerouteNo="0" devices="tripinfo_99" vType="8" vaporized=""/>
    <tripinfo id="17" depart="41.00" departLane="22_0" departPos="2.93" departSpeed="0.00" departDelay="10.21" arrival="369.00" arrivalLane="22_0" arrivalPos="328.25" arrivalSpeed="0.93" duration="328.00" routeLength="325.32" waitSteps="0" rerouteNo="0" devices="tripinfo_17" vType="8" vaporized=""/>
    <tripinfo id="30" depart="13.00" departLane="3_0" departPos="7.99" departSpeed="0.00" departDelay="-0.86" arrival="369.00" arrivalLane="1_0" arrivalPos="328.25" arrivalSpeed="2.08" duration="356.00" routeLength="643.76" waitSteps="42" rerouteNo="0" devices="tripinfo_30" vType="1" vaporized=""/>
    <tripinfo id="22" depart="64.00" departLane="7_0" departPos="9.10" departSpeed="0.00" departDelay="-0.36" arrival="370.00" arrivalLane="7_0" arrivalPos="328.25" arrivalSpeed="4.93" duration="306.00" routeLength="319.15" waitSteps="0" rerouteNo="0" devices="tripinfo_22" vType="3" vaporized=""/>
    <tripinfo id="63" depart="112.00" departLane="7_0" departPos="9.10" departSpeed="0.00" departDelay="-0.98" arrival="375.00" arrivalLane="7_0" arrivalPos="328.25" arrivalSpeed="4.14" duration="263.00" routeLength="319.15" waitSteps="0" rerouteNo="0" devices="tripinfo_63" vType="3" vaporized=""/>
    <tripinfo id="66" depart="5.00" departLane="21_0" departPos="2.38" departSpeed="0.00" departDelay="-0.58" arrival="386.00" arrivalLane="7_0" arrivalPos="328.25" arrivalSpeed="2.94" duration="381.00" routeLength="654.12" waitSteps="0" rerouteNo="0" devices="tripinfo_66" vType="9" vaporized=""/>
    <tripinfo id="43" depart="13.00" departLane="21_0" departPos="2.38" departSpeed="0.00" departDelay="3.81" arrival="391.00" arrivalLane="7_0" arrivalPos="328.25" arrivalSpeed="3.16" duration="378.00" routeLength="654.12" waitSteps="0" rerouteNo="0" devices="tripinfo_43" vType="9" vaporized=""/>
    <tripinfo id="83" depart="140.00" departLane="7_0" departPos="7.99" departSpeed="0.00" departDelay="17.20" arrival="402.00" arrivalLane="7_0" arrivalPos="328.25" arrivalSpeed="2.10" duration="262.00" routeLength="320.26" waitSteps="0" rerouteNo="0" devices="tripinfo_83" vType="1" vaporized=""/>
    <tripinfo id="74" depart="357.00" departLane="15_0" departPos="9.34" departSpeed="0.00" departDelay="-0.89" arrival="430.00" arrivalLane="15_0" arrivalPos="328.25" arrivalSpeed="4.41" duration="73.00" routeLength="318.91" waitSteps="0" rerouteNo="0" devices="tripinfo_74" vType="6" vaporized=""/>
    <tripinfo id="39" depart="117.00" departLane="4_0" departPos="2.93" departSpeed="0.00" departDelay="-0.55" arrival="443.00" arrivalLane="4_0" arrivalPos="328.25" arrivalSpeed="0.93" duration="326.00" routeLength="325.32" waitSteps="0" rerouteNo="0" devices="tripinfo_39" vType="8" vaporized=""/>
    <tripinfo id="85" depart="116.00" departLane="10_0" departPos="2.93" departSpeed="0.00" departDelay="-0.21" arrival="445.00" arrivalLane="10_0" arrivalPos="328.25" arrivalSpeed="1.14" duration="329.00" routeLength="325.32" waitSteps="0" rerouteNo="0" devices="tripinfo_85" vType="8" vaporized=""/>
    <tripinfo id="48" depart="27.00" departLane="2_0" departPos="2.38" departSpeed="0.00" departDelay="-0.83" arrival="449.00" arrivalLane="4_0" arrivalPos="328.25" arrivalSpeed="3.19" duration="422.00" routeLength="649.37" waitSteps="68" rerouteNo="0" devices="tripinfo_48" vType="9" vaporized=""/>
    <tripinfo id="72" depart="256.00" departLane="13_0" departPos="2.24" departSpeed="0.00" departDelay="-0.31" arrival="449.00" arrivalLane="13_0" arrivalPos="328.25" arrivalSpeed="1.73" duration="193.00" routeLength="326.01" waitSteps="0" rerouteNo="0" devices="tripinfo_72" vType="4" vaporized=""/>
    <tripinfo id="29" depart="223.00" departLane="4_0" departPos="9.34" departSpeed="0.00" departDelay="0.54" arrival="453.00" arrivalLane="4_0" arrivalPos="328.25" arrivalSpeed="4.51" duration="230.00" routeLength="318.91" waitSteps="0" rerouteNo="0" devices="tripinfo_29" vType="6" vaporized=""/>
    <tripinfo id="76" depart="161.00" departLane="10_0" departPos="5.41" departSpeed="0.00" departDelay="-0.91" arrival="457.00" arrivalLane="10_0" arrivalPos="328.25" arrivalSpeed="1.26" duration="296.00" routeLength="322.84" waitSteps="0" rerouteNo="0" devices="tripinfo_76" vType="5" vaporized=""/>
    <tripinfo id="70" depart="314.00" departLane="4_0" departPos="2.38" departSpeed="0.00" departDelay="1.92" arrival="462.00" arrivalLane="4_0" arrivalPos="328.25" arrivalSpeed="3.03" duration="148.00" routeLength="325.87" waitSteps="0" rerouteNo="0" devices="tripinfo_70" vType="9" vaporized=""/>
    <tripinfo id="13" depart="166.00" departLane="22_0" departPos="2.93" departSpeed="0.00" departDelay="-0.86" arrival="495.00" arrivalLane="22_0" arrivalPos="328.25" arrivalSpeed="0.95" duration="329.00" routeLength="325.32" waitSteps="0" rerouteNo="0" devices="tripinfo_13" vType="8" vaporized=""/>
    <tripinfo id="38" depart="231.00" departLane="10_0" departPos="2.93" departSpeed="0.00" departDelay="-0.08" arrival="557.00" arrivalLane="10_0" arrivalPos="328.25" arrivalSpeed="0.85" duration="326.00" routeLength="325.32" waitSteps="0" rerouteNo="0" devices="tripinfo_38" vType="8" vaporized=""/>
    <tripinfo id="69" depart="248.00" departLane="10_0" departPos="7.99" departSpeed="0.00" departDelay="-0.42" arrival="562.00" arrivalLane="10_0" arrivalPos="328.25" arrivalSpeed="2.09" duration="314.00" routeLength="320.26" waitSteps="0" rerouteNo="0" devices="tripinfo_69" vType="1" vaporized=""/>
    <tripinfo id="10" depart="262.00" departLane="10_0" departPos="2.24" departSpeed="0.00" departDelay="-0.52" arrival="569.00" arrivalLane="10_0" arrivalPos="328.25" arrivalSpeed="1.73" duration="307.00" routeLength="326.01" waitSteps="0" rerouteNo="0" devices="tripinfo_10" vType="4" vaporized=""/>
    <tripinfo id="64" depart="353.00" departLane="10_0" departPos="7.99" departSpeed="0.00" departDelay="-0.97" arrival="574.00" arrivalLane="10_0" arrivalPos="328.25" arrivalSpeed="2.07" duration="221.00" routeLength="320.26" waitSteps="0" rerouteNo="0" devices="tripinfo_64" vType="1" vaporized=""/>
    <tripinfo id="96" depart="299.00" departLane="1_0" departPos="2.93" departSpeed="0.00" departDelay="-0.70" arrival="627.00" arrivalLane="1_0" arrivalPos="328.25" arrivalSpeed="0.93" duration="328.00" routeLength="325.32" waitSteps="0" rerouteNo="0" devices="tripinfo_96" vType="8" vaporized=""/>
    <tripinfo id="75" depart="127.00" departLane="17_0" departPos="7.99" departSpeed="0.00" departDelay="-0.78" arrival="632.00" arrivalLane="1_0" arrivalPos="328.25" arrivalSpeed="2.09" duration="505.00" routeLength="643.76" waitSteps="31" rerouteNo="0" devices="tripinfo_75" vType="1" vaporized=""/>
    <tripinfo id="47" depart="137.00" departLane="17_0" departPos="7.99" departSpeed="0.00" departDelay="-0.19" arrival="639.00" arrivalLane="1_0" arrivalPos="328.25" arrivalSpeed="2.09" duration="502.00" routeLength="643.76" waitSteps="28" rerouteNo="0" devices="tripinfo_47" vType="1" vaporized=""/>
    <tripinfo id="98" depart="187.00" departLane="17_0" departPos="9.34" departSpeed="0.00" departDelay="-0.52" arrival="644.00" arrivalLane="1_0" arrivalPos="328.25" arrivalSpeed="4.64" duration="457.00" routeLength="642.41" waitSteps="26" rerouteNo="0" devices="tripinfo_98" vType="6" vaporized=""/>
    <tripinfo id="12" depart="244.00" departLane="17_0" departPos="2.24" departSpeed="0.00" departDelay="-0.07" arrival="715.00" arrivalLane="1_0" arrivalPos="328.25" arrivalSpeed="1.66" duration="471.00" routeLength="649.51" waitSteps="80" rerouteNo="0" devices="tripinfo_12" vType="4" vaporized=""/>
    <tripinfo id="6" depart="9.00" departLane="8_0" departPos="5.41" departSpeed="0.00" departDelay="-0.36" arrival="721.00" arrivalLane="10_0" arrivalPos="328.25" arrivalSpeed="1.10" duration="712.00" routeLength="646.34" waitSteps="115" rerouteNo="0" devices="tripinfo_6" vType="5" vaporized=""/>
    <tripinfo id="37" depart="133.00" departLane="8_0" departPos="9.10" departSpeed="0.00" departDelay="-0.69" arrival="726.00" arrivalLane="10_0" arrivalPos="328.25" arrivalSpeed="4.31" duration="593.00" routeLength="642.65" waitSteps="112" rerouteNo="0" devices="tripinfo_37" vType="3" vaporized=""/>
    <tripinfo id="40" depart="146.00" departLane="8_0" departPos="2.93" departSpeed="0.00" departDelay="-0.93" arrival="969.00" arrivalLane="10_0" arrivalPos="328.25" arrivalSpeed="1.06" duration="823.00" routeLength="648.82" waitSteps="158" rerouteNo="0" devices="tripinfo_40" vType="8" vaporized=""/>
    <tripinfo id="54" depart="87.00" departLane="6_0" departPos="9.10" departSpeed="0.00" departDelay="-0.51" arrival="974.00" arrivalLane="10_0" arrivalPos="328.25" arrivalSpeed="4.84" duration="887.00" routeLength="970.90" waitSteps="190" rerouteNo="0" devices="tripinfo_54" vType="3" vaporized=""/>
    <tripinfo id="87" depart="356.00" departLane="17_0" departPos="2.93" departSpeed="0.00" departDelay="-0.11" arrival="1070.00" arrivalLane="1_0" arrivalPos="328.25" arrivalSpeed="1.13" duration="714.00" routeLength="648.82" waitSteps="52" rerouteNo="0" devices="tripinfo_87" vType="8" vaporized=""/>
    <tripinfo id="34" depart="127.00" departLane="20_0" departPos="3.51" departSpeed="0.00" departDelay="-0.20" arrival="1697.00" arrivalLane="20_0" arrivalPos="328.25" arrivalSpeed="0.26" duration="1570.00" routeLength="324.74" waitSteps="0" rerouteNo="0" devices="tripinfo_34" vType="7" vaporized=""/>
    <tripinfo id="3" depart="163.00" departLane="20_0" departPos="5.41" departSpeed="0.00" departDelay="24.52" arrival="1703.00" arrivalLane="20_0" arrivalPos="328.25" arrivalSpeed="1.05" duration="1540.00" routeLength="322.84" waitSteps="29" rerouteNo="0" devices="tripinfo_3" vType="5" vaporized=""/>
    <tripinfo id="51" depart="210.00" departLane="20_0" departPos="3.51" departSpeed="0.00" departDelay="20.01" arrival="1799.00" arrivalLane="20_0" arrivalPos="328.25" arrivalSpeed="0.25" duration="1589.00" routeLength="324.74" waitSteps="0" rerouteNo="0" devices="tripinfo_51" vType="7" vaporized=""/>
    <tripinfo id="31" depart="255.00" departLane="20_0" departPos="3.51" departSpeed="0.00" departDelay="46.24" arrival="1848.00" arrivalLane="20_0" arrivalPos="328.25" arrivalSpeed="0.27" duration="1593.00" routeLength="324.74" waitSteps="1" rerouteNo="0" devices="tripinfo_31" vType="7" vaporized=""/>
    <tripinfo id="90" depart="162.00" departLane="7_0" departPos="4.41" departSpeed="0.00" departDelay="3.99" arrival="2314.00" arrivalLane="7_0" arrivalPos="328.25" arrivalSpeed="0.25" duration="2152.00" routeLength="323.84" waitSteps="709" rerouteNo="0" devices="tripinfo_90" vType="2" vaporized=""/>
    <tripinfo id="81" depart="157.00" departLane="9_0" departPos="9.34" departSpeed="0.00" departDelay="-0.89" arrival="2319.00" arrivalLane="7_0" arrivalPos="328.25" arrivalSpeed="4.19" duration="2162.00" routeLength="642.41" waitSteps="566" rerouteNo="0" devices="tripinfo_81" vType="6" vaporized=""/>
    <tripinfo id="53" depart="308.00" departLane="7_0" departPos="2.24" departSpeed="0.00" departDelay="7.04" arrival="2330.00" arrivalLane="7_0" arrivalPos="328.25" arrivalSpeed="1.66" duration="2022.00" routeLength="326.01" waitSteps="476" rerouteNo="0" devices="tripinfo_53" vType="4" vaporized=""/>
    <tripinfo id="71" depart="127.00" departLane="21_0" departPos="2.38" departSpeed="0.00" departDelay="-0.57" arrival="2335.00" arrivalLane="7_0" arrivalPos="328.25" arrivalSpeed="2.88" duration="2208.00" routeLength="654.12" waitSteps="690" rerouteNo="0" devices="tripinfo_71" vType="9" vaporized=""/>
    <tripinfo id="61" depart="279.00" departLane="13_0" departPos="4.41" departSpeed="0.00" departDelay="-0.52" arrival="2423.00" arrivalLane="13_0" arrivalPos="328.25" arrivalSpeed="0.29" duration="2144.00" routeLength="323.84" waitSteps="694" rerouteNo="0" devices="tripinfo_61" vType="2" vaporized=""/>
    <tripinfo id="86" depart="51.00" departLane="5_0" departPos="9.10" departSpeed="0.00" departDelay="-0.55" arrival="2429.00" arrivalLane="13_0" arrivalPos="328.25" arrivalSpeed="4.12" duration="2378.00" routeLength="970.90" waitSteps="555" rerouteNo="0" devices="tripinfo_86" vType="3" vaporized=""/>
    <tripinfo id="4" depart="66.00" departLane="5_0" departPos="7.99" departSpeed="0.00" departDelay="-0.39" arrival="2438.00" arrivalLane="13_0" arrivalPos="328.25" arrivalSpeed="2.11" duration="2372.00" routeLength="972.01" waitSteps="342" rerouteNo="0" devices="tripinfo_4" vType="1" vaporized=""/>
    <tripinfo id="62" depart="49.00" departLane="14_0" departPos="2.24" departSpeed="0.00" departDelay="-0.73" arrival="2447.00" arrivalLane="13_0" arrivalPos="328.25" arrivalSpeed="1.73" duration="2398.00" routeLength="977.76" waitSteps="504" rerouteNo="0" devices="tripinfo_62" vType="4" vaporized=""/>
    <tripinfo id="44" depart="183.00" departLane="19_0" departPos="9.34" departSpeed="0.00" departDelay="-0.89" arrival="2451.00" arrivalLane="13_0" arrivalPos="328.25" arrivalSpeed="4.38" duration="2268.00" routeLength="965.91" waitSteps="479" rerouteNo="0" devices="tripinfo_44" vType="6" vaporized=""/>
    <tripinfo id="8" depart="212.00" departLane="19_0" departPos="2.38" departSpeed="0.00" departDelay="-0.74" arrival="2459.00" arrivalLane="13_0" arrivalPos="328.25" arrivalSpeed="3.16" duration="2247.00" routeLength="972.87" waitSteps="750" rerouteNo="0" devices="tripinfo_8" vType="9" vaporized=""/>
    <tripinfo id="67" depart="437.00" departLane="7_0" departPos="4.41" departSpeed="0.00" departDelay="237.35" arrival="2583.00" arrivalLane="7_0" arrivalPos="328.25" arrivalSpeed="0.18" duration="2146.00" routeLength="323.84" waitSteps="681" rerouteNo="0" devices="tripinfo_67" vType="2" vaporized=""/>
    <tripinfo id="77" depart="519.00" departLane="7_0" departPos="2.93" departSpeed="0.00" departDelay="347.24" arrival="2597.00" arrivalLane="7_0" arrivalPos="328.25" arrivalSpeed="1.06" duration="2078.00" routeLength="325.32" waitSteps="559" rerouteNo="0" devices="tripinfo_77" vType="8" vaporized=""/>
    <tripinfo id="91" depart="605.00" departLane="7_0" departPos="2.93" departSpeed="0.00" departDelay="274.63" arrival="2612.00" arrivalLane="7_0" arrivalPos="328.25" arrivalSpeed="1.11" duration="2007.00" routeLength="325.32" waitSteps="418" rerouteNo="0" devices="tripinfo_91" vType="8" vaporized=""/>
    <tripinfo id="2" depart="694.00" departLane="7_0" departPos="7.99" departSpeed="0.00" departDelay="474.49" arrival="2617.00" arrivalLane="7_0" arrivalPos="328.25" arrivalSpeed="2.14" duration="1923.00" routeLength="320.26" waitSteps="343" rerouteNo="0" devices="tripinfo_2" vType="1" vaporized=""/>
    <tripinfo id="56" depart="86.00" departLane="3_0" departPos="3.51" departSpeed="0.00" departDelay="-0.78" arrival="3316.00" arrivalLane="1_0" arrivalPos="328.25" arrivalSpeed="0.23" duration="3230.00" routeLength="648.24" waitSteps="37" rerouteNo="0" devices="tripinfo_56" vType="7" vaporized=""/>
    <tripinfo id="11" depart="39.00" departLane="2_0" departPos="3.51" departSpeed="0.00" departDelay="-0.32" arrival="3318.00" arrivalLane="4_0" arrivalPos="328.25" arrivalSpeed="0.18" duration="3279.00" routeLength="648.24" waitSteps="67" rerouteNo="0" devices="tripinfo_11" vType="7" vaporized=""/>
    <tripinfo id="89" depart="169.00" departLane="3_0" departPos="9.34" departSpeed="0.00" departDelay="66.48" arrival="3321.00" arrivalLane="1_0" arrivalPos="328.25" arrivalSpeed="4.14" duration="3152.00" routeLength="642.41" waitSteps="198" rerouteNo="0" devices="tripinfo_89" vType="6" vaporized=""/>
    <tripinfo id="5" depart="109.00" departLane="2_0" departPos="2.24" departSpeed="0.00" departDelay="-0.85" arrival="3321.00" arrivalLane="4_0" arrivalPos="328.25" arrivalSpeed="1.73" duration="3212.00" routeLength="649.51" waitSteps="227" rerouteNo="0" devices="tripinfo_5" vType="4" vaporized=""/>
    <tripinfo id="21" depart="485.00" departLane="3_0" departPos="9.34" departSpeed="0.00" departDelay="280.36" arrival="3326.00" arrivalLane="1_0" arrivalPos="328.25" arrivalSpeed="4.50" duration="2841.00" routeLength="642.41" waitSteps="385" rerouteNo="0" devices="tripinfo_21" vType="6" vaporized=""/>
    <tripinfo id="57" depart="136.00" departLane="21_0" departPos="3.51" departSpeed="0.00" departDelay="5.72" arrival="3418.00" arrivalLane="7_0" arrivalPos="328.25" arrivalSpeed="0.25" duration="3282.00" routeLength="652.99" waitSteps="60" rerouteNo="0" devices="tripinfo_57" vType="7" vaporized=""/>
    <tripinfo id="9" depart="298.00" departLane="8_0" departPos="3.51" departSpeed="0.00" departDelay="-0.53" arrival="3516.00" arrivalLane="10_0" arrivalPos="328.25" arrivalSpeed="0.25" duration="3218.00" routeLength="648.24" waitSteps="15" rerouteNo="0" devices="tripinfo_9" vType="7" vaporized=""/>
    <tripinfo id="55" depart="164.00" departLane="9_0" departPos="3.51" departSpeed="0.00" departDelay="-0.10" arrival="3534.00" arrivalLane="7_0" arrivalPos="328.25" arrivalSpeed="0.17" duration="3370.00" routeLength="648.24" waitSteps="174" rerouteNo="0" devices="tripinfo_55" vType="7" vaporized=""/>
    <tripinfo id="84" depart="219.00" departLane="21_0" departPos="9.34" departSpeed="0.00" departDelay="10.26" arrival="3539.00" arrivalLane="7_0" arrivalPos="328.25" arrivalSpeed="4.47" duration="3320.00" routeLength="647.16" waitSteps="198" rerouteNo="0" devices="tripinfo_84" vType="6" vaporized=""/>
    <tripinfo id="0" depart="12.00" departLane="12_0" departPos="4.41" departSpeed="0.00" departDelay="-0.15" arrival="4442.00" arrivalLane="1_0" arrivalPos="328.25" arrivalSpeed="0.05" duration="4430.00" routeLength="652.09" waitSteps="1475" rerouteNo="0" devices="tripinfo_0" vType="2" vaporized=""/>
    <tripinfo id="88" depart="207.00" departLane="12_0" departPos="4.41" departSpeed="0.00" departDelay="-0.05" arrival="4764.00" arrivalLane="1_0" arrivalPos="328.25" arrivalSpeed="0.19" duration="4557.00" routeLength="652.09" waitSteps="1654" rerouteNo="0" devices="tripinfo_88" vType="2" vaporized=""/>
    <tripinfo id="45" depart="294.00" departLane="12_0" departPos="2.93" departSpeed="0.00" departDelay="84.67" arrival="4778.00" arrivalLane="1_0" arrivalPos="328.25" arrivalSpeed="1.07" duration="4484.00" routeLength="653.57" waitSteps="1510" rerouteNo="0" devices="tripinfo_45" vType="8" vaporized=""/>
    <tripinfo id="73" depart="323.00" departLane="21_0" departPos="4.41" departSpeed="0.00" departDelay="-0.41" arrival="4779.00" arrivalLane="7_0" arrivalPos="328.25" arrivalSpeed="0.13" duration="4456.00" routeLength="652.09" waitSteps="1543" rerouteNo="0" devices="tripinfo_73" vType="2" vaporized=""/>
    <tripinfo id="58" depart="329.00" departLane="12_0" departPos="2.24" departSpeed="0.00" departDelay="-0.27" arrival="4781.00" arrivalLane="1_0" arrivalPos="328.25" arrivalSpeed="1.64" duration="4452.00" routeLength="654.26" waitSteps="1360" rerouteNo="0" devices="tripinfo_58" vType="4" vaporized=""/>
    <tripinfo id="24" depart="390.00" departLane="12_0" departPos="2.38" departSpeed="0.00" departDelay="86.04" arrival="4786.00" arrivalLane="1_0" arrivalPos="328.25" arrivalSpeed="2.91" duration="4396.00" routeLength="654.12" waitSteps="1635" rerouteNo="0" devices="tripinfo_24" vType="9" vaporized=""/>
    <tripinfo id="95" depart="194.00" departLane="23_0" departPos="2.38" departSpeed="0.00" departDelay="-0.34" arrival="4792.00" arrivalLane="1_0" arrivalPos="328.25" arrivalSpeed="2.93" duration="4598.00" routeLength="1301.12" waitSteps="1775" rerouteNo="0" devices="tripinfo_95" vType="9" vaporized=""/>
    <tripinfo id="94" depart="9.00" departLane="18_0" departPos="2.93" departSpeed="0.00" departDelay="-0.85" arrival="4823.00" arrivalLane="1_0" arrivalPos="328.25" arrivalSpeed="0.88" duration="4814.00" routeLength="1295.82" waitSteps="1544" rerouteNo="0" devices="tripinfo_94" vType="8" vaporized=""/>
    <tripinfo id="68" depart="45.00" departLane="18_0" departPos="2.38" departSpeed="0.00" departDelay="-0.50" arrival="4829.00" arrivalLane="1_0" arrivalPos="328.25" arrivalSpeed="2.78" duration="4784.00" routeLength="1296.37" waitSteps="1915" rerouteNo="0" devices="tripinfo_68" vType="9" vaporized=""/>
    <tripinfo id="20" depart="291.00" departLane="18_0" departPos="9.34" departSpeed="0.00" departDelay="-0.69" arrival="4833.00" arrivalLane="1_0" arrivalPos="328.25" arrivalSpeed="4.40" duration="4542.00" routeLength="1289.41" waitSteps="1628" rerouteNo="0" devices="tripinfo_20" vType="6" vaporized=""/>
    <tripinfo id="23" depart="167.00" departLane="11_0" departPos="5.41" departSpeed="0.00" departDelay="-0.92" arrival="4856.00" arrivalLane="1_0" arrivalPos="328.25" arrivalSpeed="1.11" duration="4689.00" routeLength="1298.09" waitSteps="1559" rerouteNo="0" devices="tripinfo_23" vType="5" vaporized=""/>
    <tripinfo id="36" depart="183.00" departLane="11_0" departPos="7.99" departSpeed="0.00" departDelay="-0.97" arrival="4862.00" arrivalLane="1_0" arrivalPos="328.25" arrivalSpeed="2.07" duration="4679.00" routeLength="1295.51" waitSteps="1596" rerouteNo="0" devices="tripinfo_36" vType="1" vaporized=""/>
    <tripinfo id="52" depart="194.00" departLane="11_0" departPos="7.99" departSpeed="0.00" departDelay="5.20" arrival="4870.00" arrivalLane="1_0" arrivalPos="328.25" arrivalSpeed="2.09" duration="4676.00" routeLength="1295.51" waitSteps="1875" rerouteNo="0" devices="tripinfo_52" vType="1" vaporized=""/>
    <tripinfo id="15" depart="268.00" departLane="9_0" departPos="4.41" departSpeed="0.00" departDelay="-0.43" arrival="4872.00" arrivalLane="7_0" arrivalPos="328.25" arrivalSpeed="0.26" duration="4604.00" routeLength="647.34" waitSteps="1668" rerouteNo="0" devices="tripinfo_15" vType="2" vaporized=""/>
    <tripinfo id="41" depart="350.00" departLane="11_0" departPos="9.34" departSpeed="0.00" departDelay="-0.46" arrival="4875.00" arrivalLane="1_0" arrivalPos="328.25" arrivalSpeed="4.66" duration="4525.00" routeLength="1294.16" waitSteps="1927" rerouteNo="0" devices="tripinfo_41" vType="6" vaporized=""/>
    <tripinfo id="7" depart="439.00" departLane="21_0" departPos="9.34" departSpeed="0.00" departDelay="106.83" arrival="4877.00" arrivalLane="7_0" arrivalPos="328.25" arrivalSpeed="4.27" duration="4438.00" routeLength="647.16" waitSteps="1386" rerouteNo="0" devices="tripinfo_7" vType="6" vaporized=""/>
    <tripinfo id="1" depart="805.00" departLane="9_0" departPos="9.10" departSpeed="0.00" departDelay="507.22" arrival="4884.00" arrivalLane="7_0" arrivalPos="328.25" arrivalSpeed="4.16" duration="4079.00" routeLength="642.65" waitSteps="1668" rerouteNo="0" devices="tripinfo_1" vType="3" vaporized=""/>
    <tripinfo id="92" depart="332.00" departLane="18_0" departPos="2.38" departSpeed="0.00" departDelay="-0.82" arrival="4884.00" arrivalLane="1_0" arrivalPos="328.25" arrivalSpeed="2.89" duration="4552.00" routeLength="1296.37" waitSteps="2421" rerouteNo="0" devices="tripinfo_92" vType="9" vaporized=""/>
    <tripinfo id="25" depart="337.00" departLane="2_0" departPos="4.41" departSpeed="0.00" departDelay="-0.98" arrival="4892.00" arrivalLane="4_0" arrivalPos="328.25" arrivalSpeed="0.19" duration="4555.00" routeLength="647.34" waitSteps="1627" rerouteNo="0" devices="tripinfo_25" vType="2" vaporized=""/>
    <tripinfo id="33" depart="92.00" departLane="6_0" departPos="3.51" departSpeed="0.00" departDelay="-0.68" arrival="4967.00" arrivalLane="10_0" arrivalPos="328.25" arrivalSpeed="0.24" duration="4875.00" routeLength="976.49" waitSteps="31" rerouteNo="0" devices="tripinfo_33" vType="7" vaporized=""/>
    <tripinfo id="49" depart="181.00" departLane="6_0" departPos="2.38" departSpeed="0.00" departDelay="-0.26" arrival="4976.00" arrivalLane="10_0" arrivalPos="328.25" arrivalSpeed="2.33" duration="4795.00" routeLength="977.62" waitSteps="1011" rerouteNo="0" devices="tripinfo_49" vType="9" vaporized=""/>
    <tripinfo id="35" depart="125.00" departLane="14_0" departPos="3.51" departSpeed="0.00" departDelay="-0.90" arrival="5155.00" arrivalLane="13_0" arrivalPos="328.25" arrivalSpeed="0.19" duration="5030.00" routeLength="976.49" waitSteps="238" rerouteNo="0" devices="tripinfo_35" vType="7" vaporized=""/>
    <tripinfo id="80" depart="172.00" departLane="14_0" departPos="2.38" departSpeed="0.00" departDelay="38.85" arrival="5163.00" arrivalLane="13_0" arrivalPos="328.25" arrivalSpeed="2.71" duration="4991.00" routeLength="977.62" waitSteps="1214" rerouteNo="0" devices="tripinfo_80" vType="9" vaporized=""/>
    <tripinfo id="59" depart="255.00" departLane="14_0" departPos="9.34" departSpeed="0.00" departDelay="93.37" arrival="5167.00" arrivalLane="13_0" arrivalPos="328.25" arrivalSpeed="4.38" duration="4912.00" routeLength="970.66" waitSteps="805" rerouteNo="0" devices="tripinfo_59" vType="6" vaporized=""/>
    <tripinfo id="60" depart="297.00" departLane="14_0" departPos="2.24" departSpeed="0.00" departDelay="-0.64" arrival="5179.00" arrivalLane="13_0" arrivalPos="328.25" arrivalSpeed="1.75" duration="4882.00" routeLength="977.76" waitSteps="690" rerouteNo="0" devices="tripinfo_60" vType="4" vaporized=""/>
    <tripinfo id="82" depart="340.00" departLane="14_0" departPos="5.41" departSpeed="0.00" departDelay="-0.12" arrival="5193.00" arrivalLane="13_0" arrivalPos="328.25" arrivalSpeed="1.11" duration="4853.00" routeLength="974.59" waitSteps="1044" rerouteNo="0" devices="tripinfo_82" vType="5" vaporized=""/>
    <tripinfo id="14" depart="392.00" departLane="14_0" departPos="9.34" departSpeed="0.00" departDelay="205.19" arrival="5198.00" arrivalLane="13_0" arrivalPos="328.25" arrivalSpeed="4.47" duration="4806.00" routeLength="970.66" waitSteps="970" rerouteNo="0" devices="tripinfo_14" vType="6" vaporized=""/>